# vtk DataFile Version 3.0
vtk output
ASCII
DATASET RECTILINEAR_GRID
DIMENSIONS 3 3 3
X_COORDINATES 3 float
-0.0005 0.0 0.0005 
Y_COORDINATES 3 float
-0.0005 0.0 0.0005 
Z_COORDINATES 3 float
-0.0005 0.0 0.0005 
POINT_DATA 27
FIELD FieldData 2
Intensity 1 27 float
1.003991 1.061881 1.003991 0.909181 0.759512 0.908236 1.003991 1.061881 1.003991 
1.061678 1.579087 1.062082 0.761116 0.817446 0.757918 1.061678 1.579087 1.062082 
1.003991 1.061881 1.003991 0.909181 0.759512 0.908236 1.003991 1.061881 1.003991 

Composition 1 27 float
0 0 0 0 0 0 0 0 0 
0 0 0 0 1 0 0 0 0 
0 0 0 0 0 0 0 0 0
