<VTKFile type="RectilinearGrid" version="0.1" format="ascii">
 <RectilinearGrid WholeExtent="1 40 1 40 1 40">
  <Piece Extent="1 40 1 40 1 40">
   <Coordinates>
    <DataArray type="Float32" Name="X_COORDINATES" NumberOfComponents="1" format="ascii">
  -1.18643781E-02  -1.12399375E-02  -1.06154960E-02  -9.99105535E-03  -9.36661474E-03  -8.74217320E-03  -8.11773259E-03  -7.49329152E-03  -6.86885044E-03  -6.24440983E-03  -5.61996875E-03  -4.99552768E-03  -4.37108660E-03  -3.74664576E-03  -3.12220491E-03  -2.49776384E-03  -1.87332288E-03  -1.24888192E-03  -6.24440960E-04   0.00000000       6.24440960E-04   1.24888192E-03   1.87332288E-03   2.49776384E-03   3.12220491E-03   3.74664576E-03   4.37108660E-03   4.99552768E-03   5.61996875E-03   6.24440983E-03   6.86885044E-03   7.49329152E-03   8.11773259E-03   8.74217320E-03   9.36661474E-03   9.99105535E-03   1.06154960E-02   1.12399375E-02   1.18643781E-02   1.24888197E-02
    </DataArray>
    <DataArray type="Float32" Name="Y_COORDINATES" NumberOfComponents="1" format="ascii">
  -1.18643781E-02  -1.12399375E-02  -1.06154960E-02  -9.99105535E-03  -9.36661474E-03  -8.74217320E-03  -8.11773259E-03  -7.49329152E-03  -6.86885044E-03  -6.24440983E-03  -5.61996875E-03  -4.99552768E-03  -4.37108660E-03  -3.74664576E-03  -3.12220491E-03  -2.49776384E-03  -1.87332288E-03  -1.24888192E-03  -6.24440960E-04   0.00000000       6.24440960E-04   1.24888192E-03   1.87332288E-03   2.49776384E-03   3.12220491E-03   3.74664576E-03   4.37108660E-03   4.99552768E-03   5.61996875E-03   6.24440983E-03   6.86885044E-03   7.49329152E-03   8.11773259E-03   8.74217320E-03   9.36661474E-03   9.99105535E-03   1.06154960E-02   1.12399375E-02   1.18643781E-02   1.24888197E-02
    </DataArray>
    <DataArray type="Float32" Name="Z_COORDINATES" NumberOfComponents="1" format="ascii">
  -1.18643781E-02  -1.12399375E-02  -1.06154960E-02  -9.99105535E-03  -9.36661474E-03  -8.74217320E-03  -8.11773259E-03  -7.49329152E-03  -6.86885044E-03  -6.24440983E-03  -5.61996875E-03  -4.99552768E-03  -4.37108660E-03  -3.74664576E-03  -3.12220491E-03  -2.49776384E-03  -1.87332288E-03  -1.24888192E-03  -6.24440960E-04   0.00000000       6.24440960E-04   1.24888192E-03   1.87332288E-03   2.49776384E-03   3.12220491E-03   3.74664576E-03   4.37108660E-03   4.99552768E-03   5.61996875E-03   6.24440983E-03   6.86885044E-03   7.49329152E-03   8.11773259E-03   8.74217320E-03   9.36661474E-03   9.99105535E-03   1.06154960E-02   1.12399375E-02   1.18643781E-02   1.24888197E-02
    </DataArray>
   </Coordinates>
   <PointData>
         <DataArray type="Float32" Name="Intensity" NumberOfComponents="1" format="ascii">
   1.00627208       1.00879204       1.01159704       1.01468849       1.01805973       1.02169549       1.02557003       1.02964556       1.03387249       1.03818798       1.04251766       1.04677665       1.05087161       1.05470383       1.05817378       1.06118500       1.06364930       1.06549144       1.06665313       1.06709719       1.06680894       1.06579792       1.06409645       1.06175852       1.05885577       1.05547369       1.05170715       1.04765522       1.04341674       1.03908622       1.03475022       1.03048551       1.02635717       1.02241790       1.01870787       1.01525545       1.01207876       1.00918651       1.00657892       1.00425088       1.00261211       1.00499868       1.00768983       1.01069152       1.01400173       1.01760864       1.02148902       1.02560723       1.02991331       1.03434300       1.03881788       1.04324675       1.04752851       1.05155468       1.05521452       1.05840027       1.06101263       1.06296611       1.06419516       1.06465721       1.06433582       1.06324220       1.06141329       1.05891097       1.05581665       1.05222738       1.04824948       1.04399312       1.03956747       1.03507519       1.03060949       1.02625144       1.02206767       1.01811147       1.01442122       1.01102281       1.00793052       1.00514865       1.00267303       1.00049412      0.998458385       1.00065100       1.00316513       1.00601113       1.00919235       1.01270139       1.01651967       1.02061403       1.02493596       1.02942061       1.03398669       1.03853786       1.04296505       1.04715061       1.05097222       1.05431056       1.05705416       1.05910742       1.06039596       1.06087184       1.06051683       1.05934346       1.05739450       1.05474019       1.05147266       1.04770052       1.04354262       1.03912044       1.03455305       1.02995157       1.02541423       1.02102554       1.01685321       1.01294875       1.00934792       1.00607276       1.00313246       1.00052607      0.998244524      0.996272743      0.993794620      0.995725274      0.997988701       1.00060117       1.00357187       1.00689960       1.01057088       1.01455688       1.01881230       1.02327299       1.02785659       1.03246295       1.03697598       1.04126894       1.04520917       1.04866457       1.05151212       1.05364501       1.05498040       1.05546391       1.05507565       1.05383039       1.05177653       1.04899275       1.04558253       1.04166722       1.03737736       1.03284633       1.02820241       1.02356350       1.01903272       1.01469564       1.01061940       1.00685251       1.00342655       1.00035763      0.997649312      0.995294094      0.993277192      0.991577983      0.988615930      0.990208209      0.992137611      0.994426906      0.997091770       1.00013816       1.00355923       1.00733244       1.01141739       1.01575303       1.02025747       1.02482831       1.02934504       1.03367245       1.03766811       1.04118872       1.04409921       1.04628170       1.04764426       1.04812717       1.04770827       1.04640412       1.04426944       1.04139185       1.03788626       1.03388596       1.02953386       1.02497327       1.02034128       1.01576066       1.01133716       1.00715601       1.00328112      0.999756455      0.996607006      0.993842006      0.991457582      0.989439547      0.987766445      0.986411750      0.982931256      0.984101713      0.985604882      0.987469852      0.989719868      0.992368579      0.995417535      0.998852253       1.00263917       1.00672281       1.01102483       1.01544285       1.01985395       1.02411735       1.02808237       1.03159535       1.03451073       1.03669989       1.03806245       1.03853309       1.03808773       1.03674543       1.03456616       1.03164673       1.02811301       1.02410960       1.01978981       1.01530623       1.01080167       1.00640190       1.00221241      0.998315513      0.994769394      0.991610765      0.988856554      0.986507356      0.984550953      0.982965350      0.981722236      0.980789423      0.976766527      0.977426708      0.978404105      0.979734063      0.981447458      0.983566582      0.986102700      0.989051104      0.992387652      0.996065497       1.00001216       1.00412977       1.00829577       1.01236713       1.01618755       1.01959586       1.02243733       1.02457488       1.02590072       1.02634406       1.02587950       1.02452779       1.02235508       1.01946616       1.01599574       1.01209819       1.00793540       1.00366569      0.999434710      0.995368063      0.991567373      0.988108337      0.985040903      0.982391775      0.980167687      0.978359103      0.976944804      0.975894451      0.975173116      0.974743128      0.970168471      0.970227599      0.970575154      0.971252322      0.972297311      0.973741770      0.975607336      0.977901101      0.980610609      0.983700514      0.987109005      0.990745842      0.994493663      0.998211920       1.00174272       1.00492108       1.00758708       1.00959682       1.01083732       1.01123428       1.01076090       1.00944030       1.00734234       1.00457871       1.00129080      0.997639537      0.993791401      0.989906192      0.986128151      0.982577980      0.979349256      0.976507008      0.974089324      0.972110629      0.970565319      0.969432831      0.968681931      0.968274415      0.968169093      0.968323469      0.963207364      0.962575912      0.962189257      0.962093055      0.962332308      0.962947786      0.963972032      0.965425193      0.967309177      0.969603658      0.972260892      0.975204289      0.978327036      0.981496215      0.984558880      0.987352014      0.989714384      0.991500616      0.992595196      0.992922008      0.992454588      0.991216481      0.989281058      0.986763060      0.983807504      0.980576396      0.977235377      0.973940372      0.970827997      0.968008161      0.965561092      0.963536978      0.961958289      0.960824609      0.960116386      0.959801197      0.959838212      0.960181653      0.960784972      0.961602628      0.955979109      0.954573989      0.953353643      0.952366769      0.951663673      0.951293111      0.951298714      0.951714635      0.952558815      0.953829169      0.955497265      0.957504869      0.959762990      0.962153912      0.964537084      0.966758549      0.968663096      0.970109820      0.970984876      0.971213639      0.970770299      0.969679236      0.968014240      0.965888977      0.963446140      0.960842669      0.958235741      0.955769598      0.953565717      0.951716244      0.950282276      0.949294150      0.948755383      0.948648095      0.948938131      0.949581206      0.950527191      0.951724648      0.953123033      0.954675555      0.948607028      0.946357131      0.944215417      0.942231119      0.940457880      0.938951015      0.937764168      0.936944962      0.936529458      0.936536133      0.936960220      0.937768519      0.938897252      0.940252662      0.941715717      0.943151355      0.944420159      0.945392370      0.945962250      0.946060777      0.945664227      0.944796681      0.943528831      0.941968083      0.940246642      0.938507915      0.936891139      0.935518920      0.934488833      0.933867455      0.933689892      0.933961868      0.934665084      0.935762703      0.937205672      0.938938618      0.940904081      0.943046451      0.945314050      0.947660506      0.941240966      0.938093841      0.934962451      0.931893885      0.928942621      0.926167607      0.923630655      0.921392202      0.919506133      0.918013692      0.916937768      0.916276097      0.915998101      0.916044056      0.916327775      0.916744351      0.917180836      0.917528927      0.917698801      0.917631805      0.917308152      0.916750669      0.916022122      0.915216208      0.914445937      0.913829267      0.913476110      0.913476646      0.913893938      0.914760411      0.916079044      0.917826951      0.919961035      0.922425449      0.925157309      0.928091705      0.931166589      0.934324801      0.937516093      0.940697849      0.934054792      0.929983377      0.925821900      0.921612561      0.917407036      0.913265049      0.909253418      0.905443251      0.901905060      0.898703873      0.895892441      0.893505037      0.891552448      0.890018463      0.888862252      0.888021827      0.887423515      0.886992216      0.886663318      0.886394262      0.886172116      0.886016250      0.885976255      0.886123478      0.886539757      0.887305558      0.888487935      0.890132248      0.892256558      0.894850969      0.897880554      0.901290357      0.905012310      0.908972263      0.913095176      0.917310119      0.921553433      0.925769687      0.929913223      0.933947563      0.927241325      0.922250569      0.917055011      0.911688805      0.906197548      0.900638223      0.895079076      0.889598310      0.884280860      0.879214227      0.874482572      0.870159924      0.866304338      0.862953544      0.860123098      0.857807457      0.855985641      0.854628503      0.853707254      0.853202283      0.853109896      0.853444338      0.854235590      0.855522573      0.857343674      0.859727919      0.862686098      0.866206408      0.870252490      0.874764800      0.879666686      0.884870052      0.890282452      0.895813823      0.901380658      0.906909466      0.912338316      0.917617440      0.922708571      0.927584171      0.921005011      0.915136933      0.908946455      0.902457178      0.895705700      0.888742626      0.881633759      0.874460697      0.867318809      0.860315263      0.853564382      0.847181082      0.841275036      0.835943997      0.831269920      0.827315211      0.824124515      0.821726441      0.820138395      0.819370985      0.819432557      0.820329964      0.822067320      0.824640870      0.828033447      0.832209587      0.837112129      0.842661679      0.848760128      0.855294168      0.862144053      0.869189620      0.876316905      0.883423626      0.890421689      0.897239089      0.903819680      0.910121799      0.916117370      0.921789527      0.915550888      0.908888280      0.901790082      0.894268095      0.886347950      0.878071070      0.869497657      0.860708535      0.851805270      0.842910588      0.834165096      0.825722873      0.817744911      0.810391903      0.803816795      0.798157930      0.793534100      0.790041089      0.787750423      0.786708951      0.786938965      0.788438380      0.791180253      0.795109808      0.800145328      0.806177199      0.813072324      0.820678651      0.828832805      0.837368071      0.846123338      0.854949772      0.863716304      0.872313023      0.880651534      0.888664603      0.896304488      0.903540194      0.910355210      0.916744292      0.911072671      0.903738976      0.895869315      0.887464046      0.878537059      0.869119763      0.859264255      0.849047542      0.838573813      0.827976048      0.817416191      0.807081461      0.797180057      0.787931800      0.779559374      0.772276759      0.766278803      0.761731267      0.758762479      0.757457793      0.757854819      0.759941697      0.763657749      0.768894434      0.775501788      0.783294559      0.792062819      0.801583350      0.811630785      0.821989417      0.832462728      0.842878819      0.853094637      0.862996697      0.872499406      0.881542921      0.890089214      0.898118556      0.905625701      0.912617147      0.907739580      0.899895608      0.891436577      0.882352948      0.872648537      0.862345099      0.851486862      0.840145946      0.828425586      0.816465259      0.804441333      0.792566895      0.781087160      0.770271301      0.760401309      0.751756787      0.744600058      0.739159465      0.735615551      0.734088302      0.734629631      0.737218559      0.741763532      0.748106897      0.756036818      0.765300930      0.775622308      0.786716223      0.798306465      0.810138285      0.821987450      0.833666325      0.845024347      0.855947673      0.866355300      0.876194775      0.885437250      0.894072950      0.902106643      0.909554183      0.905683696      0.897520185      0.888691306      0.879180372      0.868984163      0.858117878      0.846620023      0.834557950      0.822034001      0.809190273      0.796211362      0.783326328      0.770804405      0.758947372      0.748077035      0.738518655      0.730581164      0.724537194      0.720603704      0.718926251      0.719566405      0.722496808      0.727603674      0.734694481      0.743514180      0.753762722      0.765117049      0.777251363      0.789855421      0.802648842      0.815390825      0.827884138      0.839974940      0.851550162      0.862532616      0.872875512      0.882556677      0.891573131      0.899936259      0.907668471      0.904988825      0.896716535      0.887761474      0.878104448      0.867740035      0.856680632      0.844962835      0.832652211      0.819850445      0.806700230      0.793389320      0.780151665      0.767264903      0.755042017      0.743819475      0.733938515      0.725724697      0.719466686      0.715395093      0.713664353      0.714339852      0.717391610      0.722697973      0.730053723      0.739187837      0.749783456      0.761500895      0.773999691      0.786957622      0.800085604      0.813137412      0.825912356      0.838255823      0.850055158      0.861234784      0.871750116      0.881581187      0.890727460      0.899202824      0.907031715      0.905683696      0.897520244      0.888691306      0.879180372      0.868984163      0.858117878      0.846619964      0.834558010      0.822034001      0.809190273      0.796211362      0.783326387      0.770804405      0.758947432      0.748077035      0.738518715      0.730581284      0.724537253      0.720603824      0.718926251      0.719566405      0.722496867      0.727603674      0.734694600      0.743514121      0.753762722      0.765117109      0.777251363      0.789855242      0.802648842      0.815390885      0.827884197      0.839974940      0.851550162      0.862532675      0.872875512      0.882556736      0.891573131      0.899936259      0.907668471      0.907739580      0.899895608      0.891436577      0.882353008      0.872648597      0.862345099      0.851486862      0.840145946      0.828425646      0.816465199      0.804441452      0.792566895      0.781087160      0.770271361      0.760401189      0.751756847      0.744600058      0.739159465      0.735615492      0.734088421      0.734629631      0.737218559      0.741763532      0.748106778      0.756036878      0.765300870      0.775622249      0.786716044      0.798306525      0.810138226      0.821987569      0.833666265      0.845024347      0.855947673      0.866355300      0.876194775      0.885437250      0.894072950      0.902106643      0.909554183      0.911072671      0.903738976      0.895869374      0.887464046      0.878537059      0.869119704      0.859264255      0.849047542      0.838573813      0.827976048      0.817416251      0.807081401      0.797179997      0.787931800      0.779559433      0.772276759      0.766278803      0.761731148      0.758762598      0.757457793      0.757854819      0.759941578      0.763657749      0.768894315      0.775501788      0.783294618      0.792062879      0.801583350      0.811630785      0.821989417      0.832462728      0.842878819      0.853094637      0.862996638      0.872499406      0.881542921      0.890089154      0.898118556      0.905625701      0.912617147      0.915550888      0.908888280      0.901790082      0.894268095      0.886347890      0.878071070      0.869497716      0.860708475      0.851805270      0.842910588      0.834165215      0.825722873      0.817744851      0.810391903      0.803816795      0.798157930      0.793534040      0.790041089      0.787750423      0.786708951      0.786938965      0.788438439      0.791180253      0.795109808      0.800145328      0.806177199      0.813072324      0.820678711      0.828832746      0.837368071      0.846123278      0.854949772      0.863716245      0.872313023      0.880651534      0.888664544      0.896304429      0.903540254      0.910355210      0.916744292      0.921005011      0.915137053      0.908946514      0.902457237      0.895705760      0.888742626      0.881633878      0.874460638      0.867318869      0.860315323      0.853564382      0.847181082      0.841275036      0.835944057      0.831269741      0.827315152      0.824124455      0.821726441      0.820138395      0.819371045      0.819432616      0.820330024      0.822067320      0.824640810      0.828033507      0.832209587      0.837112129      0.842661738      0.848760128      0.855294168      0.862144053      0.869189620      0.876316905      0.883423626      0.890421689      0.897239089      0.903819680      0.910121799      0.916117370      0.921789527      0.927241325      0.922250509      0.917055011      0.911688805      0.906197548      0.900638223      0.895079076      0.889598370      0.884280920      0.879214227      0.874482632      0.870159864      0.866304338      0.862953663      0.860123038      0.857807457      0.855985701      0.854628503      0.853707135      0.853202224      0.853109896      0.853444338      0.854235590      0.855522513      0.857343674      0.859727919      0.862686098      0.866206348      0.870252490      0.874764800      0.879666686      0.884870052      0.890282452      0.895813823      0.901380658      0.906909406      0.912338316      0.917617440      0.922708571      0.927584171      0.934054732      0.929983377      0.925821900      0.921612561      0.917407036      0.913265049      0.909253418      0.905443251      0.901905060      0.898703873      0.895892441      0.893505096      0.891552329      0.890018463      0.888862252      0.888021827      0.887423515      0.886992097      0.886663318      0.886394203      0.886172116      0.886016250      0.885976315      0.886123478      0.886539876      0.887305558      0.888487935      0.890132248      0.892256558      0.894850910      0.897880554      0.901290357      0.905012369      0.908972263      0.913095176      0.917310119      0.921553373      0.925769687      0.929913163      0.933947563      0.941240907      0.938093841      0.934962451      0.931893885      0.928942621      0.926167607      0.923630655      0.921392202      0.919506133      0.918013752      0.916937828      0.916276038      0.915998101      0.916043937      0.916327834      0.916744411      0.917180836      0.917528808      0.917698860      0.917631745      0.917308211      0.916750669      0.916022122      0.915216148      0.914445996      0.913829207      0.913476169      0.913476646      0.913893878      0.914760470      0.916079044      0.917826951      0.919961035      0.922425508      0.925157249      0.928091645      0.931166530      0.934324801      0.937516034      0.940697789      0.948607028      0.946357131      0.944215417      0.942231119      0.940457880      0.938951015      0.937764168      0.936944962      0.936529398      0.936536133      0.936960280      0.937768519      0.938897252      0.940252602      0.941715598      0.943151414      0.944420278      0.945392370      0.945962310      0.946060836      0.945664227      0.944796801      0.943528831      0.941968083      0.940246582      0.938507974      0.936891079      0.935518980      0.934488833      0.933867395      0.933689773      0.933961868      0.934665024      0.935762703      0.937205672      0.938938558      0.940904021      0.943046451      0.945313931      0.947660506      0.955979109      0.954574049      0.953353643      0.952366829      0.951663673      0.951293111      0.951298773      0.951714635      0.952558815      0.953829229      0.955497265      0.957504869      0.959762990      0.962153971      0.964537084      0.966758490      0.968663096      0.970109880      0.970984995      0.971213758      0.970770299      0.969679296      0.968014240      0.965889037      0.963446200      0.960842729      0.958235741      0.955769598      0.953565657      0.951716244      0.950282276      0.949294150      0.948755383      0.948648095      0.948938072      0.949581146      0.950527191      0.951724648      0.953123033      0.954675555      0.963207304      0.962575912      0.962189257      0.962093055      0.962332308      0.962947845      0.963972032      0.965425193      0.967309177      0.969603717      0.972260952      0.975204229      0.978326976      0.981496215      0.984558880      0.987351894      0.989714324      0.991500676      0.992595196      0.992922068      0.992454529      0.991216481      0.989281118      0.986763120      0.983807504      0.980576336      0.977235317      0.973940372      0.970827997      0.968008101      0.965561092      0.963536918      0.961958289      0.960824609      0.960116386      0.959801257      0.959838212      0.960181653      0.960784912      0.961602628      0.970168471      0.970227540      0.970575094      0.971252322      0.972297311      0.973741829      0.975607395      0.977901101      0.980610609      0.983700514      0.987108946      0.990745842      0.994493723      0.998211920       1.00174260       1.00492108       1.00758684       1.00959694       1.01083732       1.01123416       1.01076102       1.00944030       1.00734234       1.00457859       1.00129080      0.997639537      0.993791342      0.989906132      0.986128092      0.982577980      0.979349256      0.976506948      0.974089265      0.972110629      0.970565259      0.969432831      0.968681931      0.968274415      0.968169034      0.968323469      0.976766527      0.977426648      0.978404105      0.979734063      0.981447458      0.983566642      0.986102700      0.989051163      0.992387652      0.996065438       1.00001228       1.00412977       1.00829577       1.01236713       1.01618743       1.01959586       1.02243733       1.02457500       1.02590060       1.02634394       1.02587950       1.02452791       1.02235520       1.01946604       1.01599574       1.01209819       1.00793540       1.00366569      0.999434710      0.995368004      0.991567314      0.988108337      0.985040843      0.982391775      0.980167627      0.978359103      0.976944804      0.975894451      0.975173056      0.974743068      0.982931256      0.984101713      0.985604882      0.987469852      0.989719868      0.992368579      0.995417535      0.998852253       1.00263906       1.00672281       1.01102483       1.01544285       1.01985383       1.02411735       1.02808237       1.03159547       1.03451073       1.03670001       1.03806257       1.03853309       1.03808773       1.03674531       1.03456604       1.03164673       1.02811301       1.02410960       1.01978981       1.01530635       1.01080167       1.00640190       1.00221252      0.998315513      0.994769394      0.991610825      0.988856614      0.986507356      0.984550953      0.982965350      0.981722236      0.980789423      0.988615930      0.990208149      0.992137611      0.994426906      0.997091830       1.00013816       1.00355923       1.00733256       1.01141739       1.01575303       1.02025747       1.02482831       1.02934492       1.03367245       1.03766811       1.04118872       1.04409921       1.04628170       1.04764426       1.04812729       1.04770827       1.04640400       1.04426944       1.04139185       1.03788626       1.03388596       1.02953386       1.02497339       1.02034128       1.01576066       1.01133704       1.00715601       1.00328112      0.999756455      0.996607006      0.993842006      0.991457522      0.989439547      0.987766385      0.986411691      0.993794620      0.995725274      0.997988701       1.00060117       1.00357187       1.00689971       1.01057088       1.01455688       1.01881218       1.02327299       1.02785659       1.03246284       1.03697598       1.04126906       1.04520905       1.04866457       1.05151200       1.05364501       1.05498016       1.05546391       1.05507565       1.05383050       1.05177653       1.04899275       1.04558253       1.04166722       1.03737736       1.03284633       1.02820241       1.02356350       1.01903260       1.01469564       1.01061940       1.00685251       1.00342655       1.00035763      0.997649252      0.995294094      0.993277192      0.991577983      0.998458385       1.00065112       1.00316513       1.00601113       1.00919235       1.01270151       1.01651967       1.02061403       1.02493608       1.02942061       1.03398669       1.03853774       1.04296505       1.04715061       1.05097222       1.05431056       1.05705416       1.05910742       1.06039596       1.06087184       1.06051683       1.05934346       1.05739462       1.05474019       1.05147266       1.04770064       1.04354262       1.03912044       1.03455305       1.02995145       1.02541423       1.02102554       1.01685321       1.01294875       1.00934803       1.00607276       1.00313246       1.00052607      0.998244464      0.996272743       1.00261211       1.00499856       1.00768983       1.01069164       1.01400173       1.01760864       1.02148902       1.02560735       1.02991331       1.03434300       1.03881788       1.04324675       1.04752862       1.05155480       1.05521464       1.05840027       1.06101263       1.06296623       1.06419516       1.06465733       1.06433582       1.06324208       1.06141329       1.05891097       1.05581677       1.05222750       1.04824948       1.04399312       1.03956735       1.03507519       1.03060961       1.02625144       1.02206767       1.01811159       1.01442111       1.01102281       1.00793052       1.00514853       1.00267303       1.00049412       1.00627208       1.00879204       1.01159704       1.01468849       1.01805973       1.02169549       1.02557003       1.02964556       1.03387249       1.03818798       1.04251766       1.04677665       1.05087161       1.05470383       1.05817378       1.06118488       1.06364930       1.06549144       1.06665313       1.06709719       1.06680894       1.06579781       1.06409645       1.06175840       1.05885565       1.05547369       1.05170715       1.04765534       1.04341674       1.03908610       1.03475022       1.03048551       1.02635717       1.02241790       1.01870775       1.01525545       1.01207876       1.00918651       1.00657892       1.00425088       1.00946164       1.01206374       1.01492894       1.01805496       1.02143180       1.02504170       1.02885675       1.03283882       1.03693902       1.04109776       1.04524469       1.04930174       1.05318320       1.05680060       1.06006455       1.06288934       1.06519723       1.06692195       1.06801248       1.06843591       1.06817949       1.06725132       1.06567943       1.06351054       1.06080735       1.05764556       1.05410862       1.05028486       1.04626358       1.04213047       1.03796589       1.03384137       1.02981889       1.02595007       1.02227569       1.01882577       1.01562095       1.01267302       1.00998664       1.00756013       1.00877523       1.01174712       1.01506341       1.01872802       1.02273583       1.02707076       1.03170383       1.03659213       1.04167640  