<VTKFile type="RectilinearGrid" version="0.1" format="ascii">
 <RectilinearGrid WholeExtent="1 4 1 4 1 4">
  <Piece Extent="1 4 1 4 1 4">
   <Coordinates>
    <DataArray type="Float32" Name="X_COORDINATES" NumberOfComponents="1" format="ascii">
  -1.01031037E-03   0.00000000       1.01031037E-03   2.02062074E-03
    </DataArray>
    <DataArray type="Float32" Name="Y_COORDINATES" NumberOfComponents="1" format="ascii">
  -1.01031037E-03   0.00000000       1.01031037E-03   2.02062074E-03
    </DataArray>
    <DataArray type="Float32" Name="Z_COORDINATES" NumberOfComponents="1" format="ascii">
  -1.01031037E-03   0.00000000       1.01031037E-03   2.02062074E-03
    </DataArray>
   </Coordinates>
   <PointData>
         <DataArray type="Float32" Name="Intensity" NumberOfComponents="1" format="ascii">
   1.02133644       1.09526360       1.08446336      0.994156003      0.932577074      0.907643914      0.708656311      0.879840255      0.933826089      0.959825218       1.01580143      0.988785028       1.03878832       1.13985610       1.06258345       1.01896238       1.09428906       1.53892255       1.63947177       1.05118263      0.911696732      0.871246278      0.769886911      0.715894639      0.964634359       1.21247077       1.43726575       1.05456698       1.13769448       1.75669253       1.16167819       1.04067791       1.08418357       1.64189041       1.15508413      0.994542778      0.713448167      0.774246216      0.516270697      0.859773755       1.02006531       1.44595289       1.08041954      0.987014174       1.06165504       1.16037130       1.08285546       1.02439296      0.994150221       1.05076396      0.994593441      0.979319155      0.882433832      0.718134761      0.860274017      0.943466604      0.991361678       1.05739665      0.988007784      0.975227475       1.01942110       1.04108191       1.02465582       1.00476849    
         </DataArray>
         <DataArray type="Float32" Name="Composition" NumberOfComponents="1" format="ascii">
   0.00000000       0.00000000       0.00000000       0.00000000       0.00000000       0.00000000       0.00000000       0.00000000       0.00000000       0.00000000       0.00000000       0.00000000       0.00000000       0.00000000       0.00000000       0.00000000       0.00000000       0.00000000       0.00000000       0.00000000       0.00000000       1.00000000       1.00000000       0.00000000       0.00000000       1.00000000       0.00000000       0.00000000       0.00000000       0.00000000       0.00000000       0.00000000       0.00000000       0.00000000       0.00000000       0.00000000       0.00000000       1.00000000       0.00000000       0.00000000       0.00000000       0.00000000       0.00000000       0.00000000       0.00000000       0.00000000       0.00000000       0.00000000       0.00000000       0.00000000       0.00000000       0.00000000       0.00000000       0.00000000       0.00000000       0.00000000       0.00000000       0.00000000       0.00000000       0.00000000       0.00000000       0.00000000       0.00000000       0.00000000    
         </DataArray>
     </PointData>
   </Piece>
  </RectilinearGrid>
</VTKFile>
